<?xml version="1.0" encoding="UTF-8"?>

<!-- generated on 2025-03-06 16:42:03 by Eclipse SUMO GUI Version 1.22.0
This data file and the accompanying materials
are made available under the terms of the Eclipse Public License v2.0
which accompanies this distribution, and is available at
http://www.eclipse.org/legal/epl-v20.html
This file may also be made available under the following Secondary
Licenses when the conditions for such availability set forth in the Eclipse
Public License 2.0 are satisfied: GNU General Public License, version 2
or later which is available at
https://www.gnu.org/licenses/old-licenses/gpl-2.0-standalone.html
SPDX-License-Identifier: EPL-2.0 OR GPL-2.0-or-later
<sumoConfiguration xmlns:xsi="http://www.w3.org/2001/XMLSchema-instance" xsi:noNamespaceSchemaLocation="http://sumo.dlr.de/xsd/sumoConfiguration.xsd">

    <input>
        <net-file value="D:\Sumo\doc\examples\sumo\busses\net.net.xml"/>
        <additional-files value="D:\Sumo\doc\examples\sumo\busses\input_additional.add.xml"/>
    </input>

    <output>
        <write-license value="true"/>
        <vehroute-output value="D:\Sumo\doc\examples\sumo\busses\vehroutes.xml"/>
    </output>

    <processing>
        <default.speeddev value="0"/>
    </processing>

    <report>
        <duration-log.disable value="true"/>
        <no-step-log value="true"/>
    </report>

</sumoConfiguration>
-->

<routes xmlns:xsi="http://www.w3.org/2001/XMLSchema-instance" xsi:noNamespaceSchemaLocation="http://sumo.dlr.de/xsd/routes_file.xsd">
    <vehicle id="0" type="BUS" depart="0.00" color="yellow" arrival="294.00">
        <route edges="2/0to2/1 2/1to1/1 1/1to1/2 1/2to0/2 0/2to0/1 0/1to0/0 0/0to1/0 1/0to2/0 2/0to2/1"/>
        <stop busStop="busstop1" duration="20.00"/>
        <stop busStop="busstop2" duration="20.00"/>
        <stop busStop="busstop3" duration="20.00"/>
        <stop busStop="busstop4" duration="20.00"/>
    </vehicle>

    <vehicle id="1" type="BUS" depart="3.00" color="yellow" arrival="374.00">
        <route edges="2/0to2/1 2/1to1/1 1/1to1/2 1/2to0/2 0/2to0/1 0/1to0/0 0/0to1/0 1/0to2/0 2/0to2/1"/>
        <stop busStop="busstop1" duration="20.00"/>
        <stop busStop="busstop2" duration="20.00"/>
        <stop busStop="busstop3" duration="20.00"/>
        <stop busStop="busstop4" duration="20.00"/>
    </vehicle>

    <vehicle id="2" type="BUS" depart="6.00" color="yellow" arrival="399.00">
        <route edges="2/0to2/1 2/1to1/1 1/1to1/2 1/2to0/2 0/2to0/1 0/1to0/0 0/0to1/0 1/0to2/0 2/0to2/1"/>
        <stop busStop="busstop1" duration="20.00"/>
        <stop busStop="busstop2" duration="20.00"/>
        <stop busStop="busstop3" duration="20.00"/>
        <stop busStop="busstop4" duration="20.00"/>
    </vehicle>

</routes>
